# vtk DataFile Version 5.1
vtk output
ASCII
DATASET POLYDATA
POINTS 45227 float
110.243 -22.5499 20.097 110.243 -22.5499 20.097 110.242 -22.554 20.0996 
110.242 -22.5696 20.1123 110.242 -22.5697 20.1123 110.242 -22.5777 20.1178 
110.241 -22.5935 20.1294 110.24 -22.6151 20.1469 110.24 -22.6187 20.1494 
110.239 -22.6229 20.1526 110.239 -22.6252 20.1548 110.237 -22.6389 20.1656 
110.235 -22.6578 20.1828 110.234 -22.6611 20.1857 110.234 -22.6726 20.1952 
110.233 -22.7063 20.2257 110.233 -22.7072 20.2265 110.233 -22.7087 20.2278 
110.233 -22.709 20.2281 110.234 -22.7464 20.261 110.234 -22.7475 20.262 
110.234 -22.7501 20.2645 110.234 -22.7507 20.265 110.235 -22.7891 20.2984 
110.233 -22.8128 20.318 110.233 -22.8244 20.3276 110.232 -22.8291 20.3313 
110.233 -22.8503 20.3493 110.233 -22.8503 20.3493 110.233 -22.8546 20.3526 
110.233 -22.8546 20.3526 110.233 -22.8552 20.353 110.232 -22.8751 20.3694 
110.233 -22.8882 20.3795 110.234 -22.909 20.3978 110.237 -22.9296 20.4147 
110.237 -22.9335 20.4181 110.238 -22.9434 20.4261 110.238 -22.9499 20.4314 
110.236 -22.9639 20.4424 110.236 -22.9645 20.4428 110.235 -22.9923 20.4636 
110.234 -23.0054 20.4739 110.234 -23.0058 20.4742 110.232 -23.0245 20.4875 
110.23 -23.0364 20.4966 110.228 -23.0489 20.5058 110.227 -23.0537 20.5095 
110.226 -23.0635 20.5167 110.225 -23.0799 20.5297 110.225 -23.1161 20.5586 
110.225 -23.1216 20.5633 110.226 -23.1369 20.5749 110.226 -23.1648 20.5977 
110.225 -23.1731 20.6032 110.224 -23.1738 20.6037 110.223 -23.1888 20.6145 
110.223 -23.1963 20.6202 110.222 -23.1973 20.6209 110.222 -23.1978 20.6213 
110.222 -23.2021 20.6244 110.221 -23.2132 20.6325 110.221 -23.2162 20.6347 
110.22 -23.2214 20.6386 110.22 -23.2404 20.6537 110.219 -23.249 20.6599 
110.219 -23.2503 20.6609 110.219 -23.2598 20.6682 110.218 -23.2619 20.6698 
110.218 -23.2695 20.6754 110.217 -23.2757 20.6798 110.217 -23.2757 20.6798 
110.217 -23.2766 20.6804 110.217 -23.2793 20.6822 110.217 -23.2811 20.6833 
110.216 -23.2896 20.6891 110.216 -23.3105 20.7034 110.214 -23.3264 20.7145 
110.215 -23.347 20.7302 110.215 -23.3529 20.7346 110.215 -23.353 20.7347 
110.214 -23.3668 20.7437 110.214 -23.3786 20.7509 110.214 -23.3818 20.7531 
110.211 -23.4102 20.7713 110.211 -23.4171 20.7752 110.205 -23.4549 20.7963 
110.205 -23.4608 20.7998 110.204 -23.4614 20.8002 110.202 -23.475 20.8074 
110.199 -23.4954 20.8188 110.199 -23.4955 20.8188 110.199 -23.5005 20.8218 
110.195 -23.5363 20.842 110.195 -23.5374 20.8426 110.195 -23.5391 20.8436 
110.194 -23.5422 20.8453 110.194 -23.555 20.8524 110.194 -23.5563 20.8531 
110.19 -23.5811 20.8664 110.189 -23.5917 20.8716 110.187 -23.6 20.8756 
110.186 -23.6114 20.8821 110.185 -23.6164 20.8848 110.184 -23.6252 20.8898 
110.182 -23.6463 20.9009 110.18 -23.6604 20.9085 110.177 -23.6812 20.9184 
110.177 -23.6816 20.9186 110.175 -23.7096 20.9362 110.172 -23.7281 20.9444 
110.171 -23.7351 20.9475 110.168 -23.7568 20.9562 110.168 -23.7568 20.9562 
110.168 -23.7579 20.9567 110.165 -23.7805 20.9694 110.161 -23.818 20.9869 
110.161 -23.818 20.9869 110.16 -23.8187 20.9873 110.16 -23.8187 20.9873 
110.16 -23.8191 20.9875 110.156 -23.8598 21.0068 110.156 -23.8668 21.01 
110.153 -23.9009 21.0283 110.152 -23.9151 21.0348 110.152 -23.9218 21.0388 
110.151 -23.9405 21.0488 110.149 -23.9719 21.0638 110.148 -23.998 21.0776 
110.147 -24.0088 21.0837 110.147 -24.0088 21.0837 110.147 -24.0153 21.0874 
110.148 -24.0302 21.0952 110.146 -24.0597 21.1108 110.145 -24.0868 21.1233 
110.145 -24.0979 21.1297 110.145 -24.0985 21.1301 110.143 -24.1398 21.1485 
110.143 -24.1441 21.1513 110.143 -24.1942 21.1775 110.143 -24.1948 21.1779 
110.141 -24.2399 21.1985 110.141 -24.25 21.2026 110.141 -24.2555 21.2047 
110.14 -24.2719 21.2124 110.139 -24.2836 21.2178 110.139 -24.2911 21.2211 
110.139 -24.3138 21.2323 110.138 -24.3271 21.2383 110.138 -24.3311 21.2402 
110.137 -24.3519 21.2498 110.137 -24.3703 21.258 110.137 -24.3766 21.2607 
110.137 -24.3992 21.2713 110.136 -24.424 21.2812 110.136 -24.4254 21.2817 
110.134 -24.4725 21.3013 110.135 -24.4818 21.3049 110.134 -24.5028 21.3134 
110.133 -24.5198 21.3203 110.133 -24.5329 21.3249 110.132 -24.5471 21.3308 
110.132 -24.5722 21.3412 110.132 -24.5786 21.3442 110.132 -24.5793 21.3445 
110.132 -24.5946 21.3516 110.131 -24.6259 21.3669 110.131 -24.6261 21.367 
110.131 -24.6346 21.3699 110.13 -24.6726 21.385 110.13 -24.6742 21.3855 
110.13 -24.685 21.3888 110.129 -24.7026 21.3953 110.129 -24.7367 21.4078 
110.128 -24.7407 21.4087 110.128 -24.786 21.4252 110.127 -24.7916 21.4275 
110.127 -24.8303 21.4418 110.126 -24.8374 21.4444 110.126 -24.8445 21.4469 
110.125 -24.8596 21.452 110.125 -24.8753 21.4573 110.124 -24.8997 21.4658 
110.124 -24.9044 21.4673 110.124 -24.9196 21.4725 110.122 -24.953 21.4842 
110.122 -24.958 21.486 110.121 -24.9868 21.4975 110.119 -25.0071 21.5016 
110.117 -25.0313 21.506 110.114 -25.0591 21.5135 110.113 -25.0807 21.5204 
110.109 -25.1098 21.5281 110.108 -25.1361 21.5343 110.105 -25.1611 21.5407 
110.103 -25.1929 21.5479 110.1 -25.2112 21.5513 110.097 -25.2587 21.5595 
110.094 -25.3067 21.5726 110.094 -25.3109 21.5738 110.091 -25.3535 21.5849 
110.091 -25.3688 21.5876 110.09 -25.3782 21.5891 110.088 -25.3999 21.5938 
110.088 -25.4136 21.5966 110.085 -25.4463 21.6003 110.085 -25.465 21.6044 
110.083 -25.4881 21.6095 110.083 -25.513 21.6138 110.083 -25.5135 21.6139 
110.081 -25.5341 21.6172 110.081 -25.5344 21.6172 110.081 -25.5452 21.6189 
110.079 -25.5806 21.6293 110.077 -25.627 21.6393 110.077 -25.6357 21.6406 
110.074 -25.6735 21.6484 110.074 -25.6917 21.6524 110.072 -25.7171 21.6571 
110.072 -25.7457 21.6622 110.071 -25.7635 21.6651 110.071 -25.7952 21.6705 
110.069 -25.8126 21.6756 110.069 -25.8432 21.6836 110.068 -25.8627 21.6896 
110.068 -25.8647 21.6902 110.068 -25.8908 21.6963 110.068 -25.891 21.6963 
110.066 -25.9118 21.6985 110.065 -25.9333 21.7004 110.063 -25.968 21.703 
110.063 -25.9681 21.703 110.063 -25.976 21.7048 110.063 -25.9762 21.7048 
110.06 -26.0143 21.7135 110.06 -26.0144 21.7136 110.059 -26.0186 21.7145 
110.058 -26.0492 21.7216 110.054 -26.0767 21.7282 110.054 -26.0767 21.7283 
110.054 -26.0937 21.7325 110.051 -26.1165 21.7382 110.049 -26.1298 21.7411 
110.041 -26.1843 21.7549 110.033 -26.236 21.7682 110.033 -26.2391 21.769 
110.025 -26.2867 21.782 110.017 -26.3366 21.7927 110.016 -26.3401 21.7936 
110.01 -26.3824 21.8077 110.001 -26.4285 21.8153 109.997 -26.453 21.823 
109.996 -26.4593 21.8251 109.989 -26.4863 21.8323 109.989 -26.4885 21.8328 
109.987 -26.4979 21.8348 109.975 -26.5468 21.8468 109.97 -26.5642 21.8522 
109.964 -26.5974 21.8609 109.953 -26.6355 21.8721 109.949 -26.6541 21.8762 
109.946 -26.666 21.8786 109.938 -26.6864 21.883 109.93 -26.7133 21.8873 
109.929 -26.7196 21.8885 109.924 -26.7333 21.8904 109.92 -26.7431 21.8922 
109.919 -26.7459 21.8926 109.907 -26.7882 21.9008 109.907 -26.7882 21.9008 
109.906 -26.7921 21.9016 109.902 -26.8059 21.9038 109.892 -26.8384 21.91 
109.885 -26.8662 21.9145 109.882 -26.8767 21.9162 109.874 -26.912 21.9233 
109.872 -26.9215 21.9264 109.872 -26.9216 21.9264 109.871 -26.9275 21.928 
109.871 -26.9287 21.9284 109.861 -26.9737 21.9394 109.86 -26.9805 21.941 
109.859 -26.9869 21.943 109.856 -27.0026 21.9484 109.855 -27.0139 21.9524 
109.852 -27.0276 21.9547 109.85 -27.0437 21.957 109.849 -27.0499 21.9592 
109.846 -27.0804 21.9621 109.846 -27.0828 21.9623 109.847 -27.1047 21.9661 
109.846 -27.1159 21.9674 109.846 -27.1221 21.9681 109.845 -27.1664 21.9695 
109.845 -27.1871 21.971 109.845 -27.1919 21.9714 109.845 -27.2087 21.971 
109.846 -27.2384 21.9697 109.846 -27.2437 21.9695 109.846 -27.2491 21.97 
109.847 -27.2883 21.971 109.847 -27.2912 21.9703 109.849 -27.3285 21.9711 
109.851 -27.347 21.9694 109.852 -27.3647 21.97 109.852 -27.3711 21.9699 
109.854 -27.3915 21.9655 109.855 -27.4217 21.9589 109.857 -27.4407 21.9554 
109.859 -27.4649 21.9507 109.859 -27.4653 21.9507 109.862 -27.4949 21.9465 
109.864 -27.5264 21.9458 109.864 -27.5279 21.9456 109.868 -27.5663 21.9355 
109.868 -27.5672 21.9353 109.871 -27.5939 21.9259 109.874 -27.6233 21.914 
109.877 -27.6491 21.905 109.88 -27.6687 21.8966 109.88 -27.6719 21.8951 
109.884 -27.6945 21.8854 109.884 -27.6957 21.8848 109.885 -27.7014 21.8819 
109.889 -27.7212 21.8735 109.889 -27.7214 21.8734 109.89 -27.7269 21.8718 
109.891 -27.7365 21.8684 109.891 -27.7366 21.8683 109.895 -27.758 21.8615 
109.896 -27.765 21.8589 109.9 -27.7916 21.8499 109.9 -27.7929 21.8496 
109.906 -27.8237 21.8368 109.911 -27.8517 21.8237 109.911 -27.8518 21.8237 
109.911 -27.8543 21.8231 109.914 -27.8646 21.8185 109.921 -27.9002 21.8008 
109.925 -27.9201 21.7895 109.926 -27.9237 21.7871 109.931 -27.9448 21.7728 
109.933 -27.9555 21.765 109.934 -27.9593 21.7624 109.937 -27.9703 21.7553 
109.941 -27.9919 21.7395 109.943 -27.9977 21.7346 109.95 -28.0213 21.7146 
109.952 -28.0306 21.7068 109.953 -28.0335 21.704 109.954 -28.0363 21.7014 
109.961 -28.0621 21.6782 109.966 -28.0772 21.6633 109.971 -28.0915 21.6498 
109.974 -28.1045 21.6376 109.978 -28.117 21.6264 109.983 -28.1343 21.6097 
109.983 -28.1344 21.6096 109.988 -28.1488 21.5946 109.991 -28.1569 21.5859 
109.995 -28.1686 21.5741 109.997 -28.1726 21.57 110.002 -28.1882 21.553 
110.002 -28.1883 21.5529 110.006 -28.1989 21.542 110.01 -28.2115 21.5296 
110.018 -28.2343 21.5056 110.022 -28.2549 21.4878 110.024 -28.262 21.4808 
110.028 -28.2739 21.4688 110.028 -28.2746 21.468 110.031 -28.2818 21.4598 
110.032 -28.2826 21.4588 110.037 -28.2943 21.445 110.039 -28.304 21.4362 
110.039 -28.3041 21.4361 110.044 -28.3173 21.4221 110.044 -28.3183 21.4211 
110.047 -28.3317 21.4103 110.048 -28.3344 21.408 110.054 -28.3563 21.3866 
110.06 -28.372 21.3696 110.063 -28.3825 21.357 110.069 -28.4011 21.3395 
110.075 -28.4212 21.3189 110.077 -28.4314 21.3089 110.081 -28.4472 21.2956 
110.088 -28.4777 21.2656 110.089 -28.4783 21.2651 110.096 -28.507 21.2361 
110.096 -28.507 21.236 110.096 -28.5079 21.2353 110.102 -28.5379 21.2093 
110.102 -28.5398 21.2075 110.109 -28.5612 21.179 110.109 -28.562 21.1782 
[...]
POINT_DATA 45227
FIELD FieldData 3
EdgeArray 2 45227 int
20435 20435 29855 20435 29855 29855 13763 13763 35498 
13763 35498 35498 35311 35311 32464 18375 35459 35457 
35458 35457 35458 35458 16197 16197 35413 35411 35414 
35413 24512 32423 38552 29823 35366 29823 38409 35366 
35429 38409 38554 38554 32450 27421 38580 38581 38579 
38581 35434 35434 44649 44649 41195 41195 44627 44625 
41181 41181 20240 41181 20240 20240 41161 20240 41161 
41161 27391 18345 44607 44607 38393 35262 48116 48013 
41047 24786 44500 41047 44500 44636 41158 32583 48032 
32583 35322 35322 48006 48006 54477 54399 27438 27438 
54503 54503 54486 54486 54491 54487 51646 54491 58297 
58297 58307 58299 58308 58310 58282 24661 61894 61894 
58175 54411 58175 54402 22714 58235 58284 54445 58284 
41171 44419 41171 44419 35136 35136 54363 54363 58213 
24842 58213 65186 65186 51533 61809 65194 65195 65206 
65212 65205 65211 65205 65185 65185 65185 61823 65185 
61823 61823 61786 61789 61786 61785 65179 61783 54374 
54374 61770 61770 27333 27333 48012 48012 51481 48012 
51481 51481 54353 35105 54353 67925 67925 67925 65078 
65078 35032 35032 67945 65071 67945 71339 71338 71338 
65077 65077 40907 65077 40907 40907 71313 71312 71256 
71318 71256 71290 71297 71297 24878 54356 24878 67943 
38065 38065 65039 65039 78113 78113 78143 78143 78133 
74809 74777 74777 74774 78116 71211 78092 78090 78089 
78119 78090 78077 78077 78080 78081 40882 78081 78017 
78017 67816 78017 67816 67816 74709 74709 74526 74526 
78065 74526 78065 78065 67717 78065 67717 67717 58042 
58042 78031 78030 71189 77985 74671 74640 84096 84102 
84100 84100 77997 77997 84080 72797 87473 87473 87472 
87473 87472 87472 87434 87434 87461 87461 77982 77982 
90980 90980 90982 90954 90949 90949 90932 90964 87416 
87416 90924 90930 90933 90935 90933 90869 90862 90869 
90894 90902 90897 90899 90883 90899 90882 90882 90880 
90880 90881 90864 87319 87319 93825 93825 93848 93846 
93844 93844 93819 93801 93802 93827 93828 93828 93807 
93795 93809 93807 93808 93808 93785 93785 93779 97204 
97222 97207 97218 97207 97218 97220 97216 97216 97186 
97190 97186 97197 97197 97197 97198 97198 97194 97175 
90794 90794 87213 87213 101038 101038 101043 101041 77174 
77174 97153 101027 101019 97154 101019 101020 101022 101020 
101022 87354 97051 87354 87368 101014 87368 101001 101001 
104889 104890 97135 100983 97135 104816 104816 90830 93736 
104882 104883 108341 104867 104878 104877 108333 104874 108335 
104862 100947 104861 104850 108321 108309 108313 108317 108317 
108299 112153 108288 108290 112147 108286 112150 108281 108280 
108281 108280 108280 108270 108276 112129 112129 108265 112127 
108275 108266 112123 112123 108257 112123 108257 108257 108253 
108257 108253 108253 108252 108252 107725 107725 93631 100971 
112091 112091 90531 116549 116546 108228 116540 116541 116539 
116538 112080 116533 93462 116532 116527 120672 120662 116525 
120662 120664 116521 116521 120657 116521 120657 120657 116517 
116517 116355 116355 100168 116355 100168 100168 120189 100168 
120189 120189 120648 120189 120648 120648 120649 120649 100798 
100798 112004 100798 112004 112004 116503 116503 108175 108175 
123989 123989 127824 112045 127823 123986 123906 123906 127820 
127820 139447 120709 108044 108044 136005 136005 127821 127821 
127800 127800 132070 143406 135985 132070 135985 143561 120494 
139378 143621 143607 143589 143555 104593 135709 104501 143529 
135939 111908 139357 139530 127680 139357 127680 123965 111946 
111946 143353 132157 132236 132157 132236 132236 143472 132236 
143472 143472 143426 143426 131986 143427 143384 143385 143383 
143386 135865 135866 135866 135866 139263 135866 139263 139263 
139264 139262 139262 139262 131947 139257 139256 139254 139255 
139258 139255 131882 131882 131882 131887 131887 135816 135816 
108274 131022 131022 104488 104488 127644 120903 124084 131762 
131820 116704 116704 131815 131814 131814 131817 131817 131810 
127429 131799 131797 131798 131797 111822 127617 127617 131785 
131785 131773 131773 131777 131777 131776 131775 123601 127608 
127565 127565 131753 131753 127550 127550 116013 123598 116013 
123618 123707 123707 123663 123663 111852 120150 123606 116353 
123594 116353 123679 123679 104211 104211 120307 123671 104971 
104971 116002 111585 120315 120315 120312 120312 116004 120274 
120289 120274 120289 120288 120272 120288 120273 120273 120270 
120273 120270 120270 120257 120257 123635 123635 123634 120223 
123613 123613 111551 111551 120244 111551 120244 120244 104085 
123596 123586 123586 123584 123584 120205 124009 127503 127503 
104180 127488 127488 131651 104052 104052 120673 120673 120190 
120660 127471 115159 115159 115903 120725 120725 120730 116590 
123491 86820 126866 114284 123237 115085 127421 127421 114169 
111475 110665 120124 110665 120006 107610 107647 116667 115817 
116667 120109 120108 120109 120053 120053 120092 120053 120092 
120092 93133 93133 104053 104053 96536 115783 115727 115727 
111264 115772 115770 115772 115767 115773 111256 115767 111255 
111255 111259 111259 111236 111259 111236 111236 111241 111240 
111239 111238 107544 111238 107546 107546 90386 90386 58794 
58794 73819 73819 92343 92343 90206 90206 96412 96412 
77187 90165 77187 90184 83299 83299 83345 83299 83345 
83345 60040 60040 64200 69653 53963 53963 80032 53963 
80032 80032 67021 80032 67021 67021 83276 79994 70445 
73852 83253 70535 83085 83253 70450 73857 77141 70444 
73747 64161 73747 67653 71327 67653 73846 61061 77027 
60496 50207 70363 67161 67161 61023 67161 61023 61023 
64288 70414 64288 70378 67132 67132 70320 67152 61553 
61553 70326 70324 64316 64316 67002 57472 60947 60947 
63511 64210 60967 60967 60968 60967 60968 60968 60924 
57426 37531 60883 46531 57454 57395 57423 57395 57241 
57241 52938 60741 47065 37895 40382 57139 47163 60716 
57138 60716 47193 40545 50681 37874 50647 40464 40466 
56271 56271 53119 56271 53119 53119 50175 53119 50175 
50175 47035 31906 46983 47035 46983 46971 46971 47028 
47028 47028 50473 43642 50473 46973 40383 40383 46898 
46898 46887 43462 43388 43388 40280 43388 40280 40280 
27014 27014 34405 34405 31670 31670 29212 29212 31607 
31607 34420 34420 34470 34470 19926 34470 19926 19926 
15681 15681 26657 26657 13199 13199 26776 26776 19941 
19941 24315 24315 17864 24315 17864 17864 21980 17864 
21980 21980 11389 22025 15765 15765 19876 19875 19875 
19874 15496 15496 17876 17876 17822 17876 17822 17822 
10789 10789 405237 405237 404329 403060 402392 405202 405202 
406656 407474 407474 407454 407474 407454 407454 402388 393198 
405245 406691 406691 403129 404262 405271 406690 405271 406790 
406790 407559 407557 401652 407561 407580 401652 407558 407558 
405278 405278 407591 407591 403191 403191 402542 402542 407499 
404412 405411 402397 405411 406804 392714 392714 404555 407690 
407634 407634 407664 407664 408834 408834 406775 406775 406928 
406928 403338 405339 388911 401444 407662 388911 407667 407667 
405518 405518 401245 391138 407788 401245 407788 405361 407877 
407877 407833 407833 369594 407833 369594 369594 407822 407822 
407821 407919 407913 407913 407938 407913 407938 407938 393611 
393611 406934 406938 408033 408036 408036 408034 408034 408034 
405352 408034 405352 405352 390601 390601 406919 395199 395199 
395199 277732 405543 364523 402448 365215 347506 405619 401228 
406860 401228 401253 395320 401253 348968 385434 405420 405433 
405420 405568 405433 404638 405449 405459 405459 404637 403307 
404637 405457 405457 405499 405499 405499 405504 405504 405581 
405581 405602 403313 405604 381315 405610 385478 405608 395369 
381654 374698 403352 403372 381647 403372 403374 381647 403374 
402511 403386 395261 395371 395261 403389 403394 401408 403394 
401379 401378 395398 393208 401386 384975 401385 401390 393233 
401390 395239 395243 393170 390605 390453 395248 395248 361334 
393206 395274 380916 390618 393215 380916 393215 393215 393216 
393215 393216 393216 371486 381317 371486 385040 385040 390516 
332331 386199 385519 303243 385521 385519 390664 385524 390664 
390661 390662 390659 390659 385535 385534 401617 401614 390689 
401673 401673 401666 401673 401666 401666 401672 401672 390562 
390562 401712 401712 401711 401716 401716 401716 401721 401721 
399008 399008 395399 399008 395399 395399 399021 395399 399021 
399021 398938 399021 398938 398938 399003 401792 401791 401791 
399000 399000 399027 393322 390798 390798 385595 401816 385600 
390794 390794 381434 381434 381434 381428 385608 385610 385610 
381438 377857 381437 381487 381437 377725 371090 361374 381463 
381463 385664 371516 381478 381478 381476 381476 385660 385661 
381480 381480 385680 385680 381485 381485 381489 381494 381494 
374951 381492 374942 374942 377902 371666 377900 377899 371666 
377899 374776 374959 381553 374959 374957 374958 381557 374968 
381560 374967 381559 377912 377912 374970 374970 374972 374972 
374981 374973 377918 374981 374974 371701 365978 365978 374985 
365978 374985 374985 374987 377940 371728 371728 255372 255372 
371733 371729 366229 366529 214282 214282 361508 361508 361514 
366542 366542 366537 366537 366536 361518 357961 309361 309361 
303554 358004 358019 358019 358015 358015 325471 358021 358024 
325471 358024 358023 314958 358013 337673 358013 337673 347213 
347750 347750 337860 353363 337860 342937 342937 343109 343117 
343117 347737 343117 347737 347737 347754 347754 347752 347754 
347752 347752 343102 343102 332230 332230 343129 343129 343140 
343140 314208 314208 337899 337899 314264 314211 343101 332235 
332235 332272 294453 294453 319381 331810 319381 338310 338310 
338309 325298 338251 338307 338307 338312 338311 338321 338321 
338212 338212 338366 338366 338365 338324 293931 293931 338255 
338255 338408 267977 338420 338420 298576 228296 267479 267479 
309491 309491 332195 332195 319457 314424 338472 319457 338473 
338473 319500 332255 338500 332255 338500 338500 332394 332394 
332392 325706 332407 332389 332407 332407 332408 332407 332408 
332408 309494 332408 309494 309494 319447 326123 326123 332415 
332414 304054 332411 332414 304099 304099 326125 326125 325958 
314492 326140 326140 298756 298756 272585 272585 326039 298714 
326038 326038 289824 285380 285380 285478 326150 294546 294546 
294545 294547 294545 319542 326180 326183 326183 294548 294559 
319516 319555 319516 319541 294556 319541 319563 289874 314564 
319564 314563 314563 314555 246966 314051 314051 309456 309456 
304068 304068 309507 309507 309471 309507 309471 309471 304067 
304067 294673 289782 289782 289782 285422 285422 304125 304124 
304124 304128 304128 304128 304112 304112 304079 304112 304079 
304079 304159 294408 304159 304158 304158 304154 304154 272300 
272300 294543 285295 285295 304156 285295 304156 304156 304092 
304156 304092 304092 304177 304179 304176 304176 304271 304271 
304274 298778 304275 304275 289920 289920 247264 247264 250523 
247264 250523 250523 259255 250523 259255 259255 280830 280830 
272700 272700 267586 267586 240867 240867 262766 262766 234633 
259103 267640 262859 267641 259176 259176 213834 213834 213834 
262872 259189 262871 259189 217376 217376 217375 217375 262881 
262881 262882 262880 246590 259266 259265 255093 259272 255093 
154599 154599 255104 255104 227779 227779 246512 246512 246272 
246272 246642 246642 250560 250560 192914 192914 246600 246600 
239037 239037 246606 246606 246605 246606 246605 246605 238709 
238709 230766 230766 239039 242772 227952 239039 220355 220355 
228067 199371 199371 227809 227809 228368 228368 224090 234681 
234681 242817 242817 234710 234710 239008 239008 242863 239008 
242863 242863 242860 242860 242886 239013 239010 239013 239010 
234687 242884 239020 239018 239022 234698 234700 234698 234699 
239027 234699 234714 234714 239031 234716 234713 234717 227815 
227815 227820 234722 231156 227820 231156 231156 231150 231150 
234739 234739 234734 234738 234741 234741 231165 231165 231163 
234729 234757 234731 234756 234756 234748 234748 234755 227878 
234755 234767 234767 234767 234768 234768 234803 217316 234802 
234803 234802 231191 234792 231191 234799 234765 234801 234765 
234831 234832 234837 234837 224364 224364 220272 224364 220272 
220272 224392 220272 224392 224392 192995 192995 210134 220448 
227949 227949 213927 227947 227946 213927 227930 227908 227970 
227970 227967 227970 227967 227967 227987 227987 213817 227983 
228009 205577 228043 228008 227982 228010 224441 227982 213962 
228039 228011 224457 220375 224457 216803 224467 224468 224467 
224464 224464 220329 224465 217383 220329 220395 224471 224484 
224485 224487 224485 220407 220405 220401 220406 220394 202969 
193224 213975 213975 220411 220437 210259 220433 220436 220432 
220442 220462 154469 190039 220462 217363 217363 220473 220444 
202975 210207 202975 203056 217391 217391 217395 217391 217395 
217395 217397 217395 217397 217397 217399 217397 217399 217399 
217400 217399 217400 217400 213984 213984 213965 213883 202991 
210302 210296 213990 210276 210276 210304 210304 214021 214021 
210317 210317 220763 220762 220797 220797 220800 220808 217495 
220808 220852 217495 220854 220854 220898 220903 220904 220903 
220897 220897 184277 184277 217528 217528 214225 214224 214223 
214225 200011 214223 200011 214218 141265 206291 206291 214276 
200005 203125 206214 214369 196694 196678 214380 210455 214380 
214379 214386 214379 214386 214386 203070 203070 214376 214376 
206524 214454 214454 214454 210421 214454 210421 210421 214446 
210421 214446 214446 214431 214481 214457 210460 210460 210458 
199983 196706 199983 199983 214510 199983 214510 214510 214421 
210517 214421 214421 214563 214421 214563 214563 214564 214562 
214564 200051 200051 200051 206564 200051 206564 206564 206569 
206564 206569 206569 206621 196776 206614 196776 206614 206614 
200175 206614 200175 200175 206579 206586 206586 187461 206714 
206713 206713 206713 206712 206712 206676 203232 206676 206676 
206679 206676 206679 206679 196837 206679 196837 196837 193279 
171096 193279 193279 196828 196828 190253 196828 190253 190253 
196833 190252 196833 196833 200106 187557 200216 196843 187551 
196848 196844 196848 193290 193290 184441 193289 193288 154648 
176847 178517 181507 178904 176771 178904 184456 165593 165593 
178946 176858 178946 176858 171127 176842 166022 178976 178976 
173921 173921 178955 178954 178945 178954 181510 178945 181511 
181510 181511 181527 178960 178959 178960 178958 176811 178958 
181580 181579 181548 181548 181586 181586 181585 181583 176874 
176874 176454 178966 178988 178988 178978 178978 179001 179001 
178998 178998 176902 176902 176890 176888 176886 179014 176883 
176884 174104 176884 174124 166277 166277 155180 174110 174110 
174164 101233 101233 174133 171207 171207 174178 174178 174172 
174172 171241 168763 171252 171241 171218 171218 158145 158145 
171267 171267 171231 171231 171262 171262 171294 171294 171295 
171290 162540 142204 161897 142204 162548 166302 162548 168817 
154569 166303 166304 166303 166330 166330 166333 166330 166333 
166333 166298 166298 166285 166317 166318 166317 166318 166318 
166319 166319 162566 166312 158207 158207 152099 155134 158169 
162574 162574 24950 24950 158157 150988 162597 162595 142016 
142221 162618 130535 162617 158220 158182 158198 158219 158196 
158227 155150 158196 155151 155150 158194 158194 158191 158212 
155163 155162 155160 155159 150991 155172 158260 134531 134531 
138432 146452 138432 142059 138184 134516 130570 141595 141593 
146459 141599 146459 115147 115147 141614 141612 146470 141625 
141625 141626 146473 146465 141631 141631 141630 141634 141634 
141652 141651 141650 141650 141664 141663 141663 141667 141667 
141667 141674 141674 138258 138257 141684 141684 130543 130543 
141703 141708 141705 141706 141701 141700 138281 141692 141692 
126503 141687 141687 141714 141724 141711 141711 141737 141711 
141737 141737 141738 141737 141738 141738 141746 141739 141747 
141740 141740 141765 141765 141765 141763 141765 141763 141763 
141760 141760 31572 31572 122901 122901 138332 138331 115095 
138331 115095 134664 138325 138325 138327 138327 141795 141795 
141800 141799 141797 141797 138346 130607 130607 130607 122892 
122892 134692 134701 119402 119402 134656 119402 134656 134656 
134690 134690 95718 95718 134681 95718 134681 134681 138362 
138362 138361 138361 130664 99486 130664 126699 130693 130726 
130679 130679 130676 130676 126646 126639 99469 126637 99542 
126637 99542 99542 119481 107437 119481 130738 130736 130738 
110731 110731 99667 110731 99667 99667 107098 99668 115311 
115299 115311 119582 115187 126715 126714 126715 126714 126714 
126723 126723 134842 134842 134835 134835 134836 126753 126642 
126642 104022 99437 104031 104031 130807 130807 107141 103406 
130825 130824 130830 130830 126795 126795 130842 130842 130843 
130843 99783 99783 130866 123099 126813 130872 130873 119577 
119687 119687 126830 126829 123140 123146 126827 126824 126824 
126823 126825 126823 115443 119680 119681 123157 79838 123156 
119696 119698 119695 119695 115444 79821 92710 92710 89655 
107372 96040 96040 96048 96048 107377 107369 107374 107374 
96151 107368 96119 96119 99869 86412 86412 69939 82722 
69939 99886 82722 99889 99886 99884 99885 99884 96148 
96155 96155 86491 86491 89863 86293 96167 89863 96166 
96167 92948 96166 92948 92949 92949 92978 92950 92951 
92950 92950 86454 82960 89936 83103 86478 82943 86478 
79883 86475 86476 86483 86476 86483 86481 82949 86481 
76928 76928 82923 82923 82957 82885 82966 82880 66723 
66723 82898 70183 82905 82905 76601 76601 76598 76598 
73500 76878 66901 76878 70124 66901 69966 73562 73561 
66642 73595 73597 73563 70018 57300 70128 66843 70128 
60707 60707 60722 57412 56929 56929 64049 64050 64051 
64050 60627 60625 60627 60629 34434 34434 57094 57094 
57097 57097 34608 34608 43345 43345 46895 46895 46890 
46894 46890 46860 46860 46860 42876 46860 42876 42876 
43466 43466 43468 43467 24046 37478 26920 26920 22107 
26920 22107 22107 34474 34474 34473 34472 34470 34470 
19926 34470 19926 19926 15681 15681 26657 26657 13199 
13199 26776 26776 19941 19941 24315 24315 17864 24315 
17864 17864 21980 17864 21980 21980 11389 22025 15765 
15765 19876 19875 19875 19874 15496 15496 17876 17876 
17822 17876 17822 17822 10789 10789 326220 326220 326016 
326016 314291 314291 272961 314439 309707 272961 259453 338360 
303938 309051 338583 332506 303820 332506 303820 303820 272745 
303820 272745 272745 224555 224555 298645 326259 326259 326259 
235196 303852 338581 338581 284870 310079 284870 343281 343281 
343281 343283 343283 325564 325564 347941 347941 285363 285363 
314652 314652 343279 339515 320394 343143 347948 347948 332735 
319717 292083 332735 285435 285435 326712 326497 285599 325025 
326310 325870 200259 200259 347411 347411 347969 331849 347965 
338954 338954 273803 315295 347973 347984 347984 358237 358235 
358239 358236 358242 358236 358242 358242 358249 353538 358250 
358250 361705 361704 361704 358244 338968 339239 332899 361713 
361712 343620 361712 366804 366803 366804 366803 366802 366800 
372021 361716 372020 372013 366816 366811 372011 375291 372025 
372026 366808 366808 366835 366834 366834 366832 366830 372042 
372040 372039 372039 366828 366843 361751 366828 372055 353793 
366852 366852 361714 361714 366872 366872 366867 366867 361802 
361802 361813 361813 361811 361811 366899 366899 366897 366897 
366904 366904 372109 366909 366913 353658 366912 366913 372116 
366912 366901 366910 366924 366924 361858 361858 366930 366930 
366894 366894 366936 366936 361844 361844 366944 366944 361875 
361875 366954 366954 358446 358446 366962 366962 366956 366956 
353818 353818 361945 339091 366824 361957 348231 361957 348231 
353840 348540 348540 366966 366966 358470 361730 320633 338663 
348533 353930 110637 366965 366965 338804 358447 358447 361920 
361920 339278 339278 361938 361796 366978 372181 372172 362105 
372186 372186 372190 372187 372190 372188 372188 366988 372196 
372196 372197 372192 372193 372193 372203 348325 372202 353860 
358308 358308 358533 358533 372218 372218 367026 367026 367021 